10
Properties=species:S:1:pos:R:3:forces:R:3 energy=-10682.988580038365 pbc="F F F"
N       -1.80833678       0.18397902       0.16153791      -0.00646703       0.00271251      -0.00566819
C       -0.48853629      -0.20599257       0.12993989       0.03538319       0.01490825      -0.00613404
N       -0.04280631      -1.35707925       0.50830719      -0.00961351      -0.01322972       0.00769834
O        1.36345536      -1.25104737       0.40944073      -0.02357967      -0.02335730       0.00904503
C        1.72090974      -0.02596724      -0.05222590       0.00507561       0.01129675      -0.00550638
O        2.84240754       0.36317900      -0.22710617      -0.00484327       0.00456588      -0.00135820
N        0.51797773       0.63645214      -0.26343941      -0.04287326       0.02008003      -0.00134818
H       -2.14354286       0.60074093      -0.69816310       0.03328599       0.01561908      -0.01143641
H       -2.41205775      -0.57204571       0.45978599       0.00617466      -0.03465672       0.02474110
H        0.45163408       1.62794084      -0.42723940       0.01700231       0.00342535      -0.00220603
10
Properties=species:S:1:pos:R:3:forces:R:3 energy=-10679.09656767595 pbc="F F F"
N       -1.83536525      -0.05427374      -0.06375823      -0.00154228      -0.00131464      -0.00092467
C       -0.49693015      -0.05398008       0.21256465      -0.00192624       0.00305714       0.00824468
N       -0.00833406      -1.25966055       0.70352136      -0.00214082       0.00335016       0.01152475
O        1.20316617      -1.18182937       1.00267451      -0.00288221       0.00345012       0.00917084
C        2.10613264      -0.04495060      -0.23800022      -0.01243676      -0.00443458      -0.01048926
O        3.07445419       0.54548253      -0.03155457       0.00564819       0.00497324      -0.01772107
N        0.38531401       0.86198420      -0.06357178      -0.00367656       0.00417491       0.01124620
H       -2.20641125       0.63396246      -0.69927488       0.00714942      -0.00534488      -0.01010846
H       -2.27717714      -0.96212379      -0.08209551       0.00706494      -0.00519788      -0.01578679
H        0.08626847       1.56468304      -0.73733526      -0.00442813       0.00460916       0.01291077
10
Properties=species:S:1:pos:R:3:forces:R:3 energy=-10680.178573114146 pbc="F F F"
N       -1.88338074      -0.06052076      -0.03994913       0.00037946      -0.00247481       0.00303512
C       -0.53405770      -0.17796120      -0.19630759      -0.01582417       0.01052328      -0.00473036
N       -0.08719649      -1.34434934       0.64072928       0.00344182       0.01091938      -0.01137216
O        1.09557342      -1.50739948       0.62541026      -0.01637790      -0.00909949       0.02734483
C        3.24266424       0.61181166       0.23316987      -0.00319442       0.00164407      -0.00481920
O        2.86873819       1.05196704       1.21289546      -0.01927695      -0.01294867      -0.00934727
N        0.31051816       0.49090024      -0.85831756       0.01730807       0.01369401      -0.00856866
H       -2.42408243       0.52414779      -0.65565322       0.01663512       0.02631012      -0.01247381
H       -2.36834130      -0.81156672       0.42617608       0.01768209      -0.03977971       0.01913083
H       -0.12515534       1.24936359      -1.38157279      -0.00701146      -0.00032595       0.00332331
10
Properties=species:S:1:pos:R:3:forces:R:3 energy=-10682.988580038365 pbc="F F F"
N       -1.80833678       0.18397902       0.16153791      -0.00646703       0.00271251      -0.00566819
C       -0.48853629      -0.20599257       0.12993989       0.03538319       0.01490825      -0.00613404
N       -0.04280631      -1.35707925       0.50830719      -0.00961351      -0.01322972       0.00769834
O        1.36345536      -1.25104737       0.40944073      -0.02357967      -0.02335730       0.00904503
C        1.72090974      -0.02596724      -0.05222590       0.00507561       0.01129675      -0.00550638
O        2.84240754       0.36317900      -0.22710617      -0.00484327       0.00456588      -0.00135820
N        0.51797773       0.63645214      -0.26343941      -0.04287326       0.02008003      -0.00134818
H       -2.14354286       0.60074093      -0.69816310       0.03328599       0.01561908      -0.01143641
H       -2.41205775      -0.57204571       0.45978599       0.00617466      -0.03465672       0.02474110
H        0.45163408       1.62794084      -0.42723940       0.01700231       0.00342535      -0.00220603
10
Properties=species:S:1:pos:R:3:forces:R:3 energy=-10680.20050001725 pbc="F F F"
N       -1.57843084       0.38495063      -0.05080480       0.00011408      -0.00056897      -0.00104261
C       -0.32456721      -0.32914866       0.04248987      -0.00441634      -0.00452709      -0.00128940
N        0.05488903      -1.54303271       0.19698682      -0.00247888      -0.00178990      -0.00184230
O        1.45200014      -1.36583068       0.17595074      -0.00430761       0.00122719      -0.00091517
C        1.78823203      -0.01017450       0.00374103       0.01062049       0.00543171      -0.00028982
O        2.92636190       0.36447620      -0.04338891      -0.00740881       0.00179929       0.00202399
N        0.57711980       0.64974508      -0.08094895      -0.00109149      -0.00344455      -0.00033761
H       -2.14542078       0.15682941      -0.86644412      -0.00172484      -0.00068387      -0.00042376
H       -2.14750003       0.37091182       0.79467227      -0.00003994      -0.00148494      -0.00061581
H       -0.64807489       1.30074315      -0.16713868       0.00629940       0.00149555      -0.00105975
10
Properties=species:S:1:pos:R:3:forces:R:3 energy=-10681.208066140387 pbc="F F F"
N       -1.55495774       0.40173769      -0.03035286       0.00478366      -0.00572404       0.00137524
C       -0.15543699      -0.04509346       0.05910697       0.01929241      -0.02959449      -0.00923134
N        0.03740378      -1.19561863       0.61539294       0.02080968      -0.01309649       0.00933615
O        1.42023392      -1.28742461       0.50205802       0.03459545      -0.01122107       0.00639037
C        1.90148528      -0.12276492      -0.14627753      -0.03421282      -0.01416156       0.01109417
O        3.07746896       0.01282759      -0.36095918      -0.01324667       0.02668567       0.00520820
N        0.81737098       0.68984493      -0.42623120      -0.00802636      -0.00285697      -0.01318826
H       -1.81583992       0.53852769      -1.01174454      -0.01995505       0.01668776       0.00724188
H       -2.14567709      -0.32248481       0.39449712      -0.01150584       0.03299524      -0.01289810
H       -1.68231101       1.29325053       0.45839857       0.00658692       0.00192461      -0.00613438
10
Properties=species:S:1:pos:R:3:forces:R:3 energy=-10682.988580036135 pbc="F F F"
N       -1.80833679       0.18397903       0.16153792      -0.00646750       0.00271243      -0.00566826
C       -0.48853630      -0.20599256       0.12993990       0.03538298       0.01490819      -0.00613375
N       -0.04280633      -1.35707923       0.50830724      -0.00961338      -0.01323012       0.00769820
O        1.36345535      -1.25104737       0.40944073      -0.02357992      -0.02335712       0.00904515
C        1.72090974      -0.02596725      -0.05222589       0.00507582       0.01129703      -0.00550652
O        2.84240754       0.36317899      -0.22710618      -0.00484366       0.00456563      -0.00135810
N        0.51797773       0.63645214      -0.26343941      -0.04287341       0.02007929      -0.00134812
H       -2.14354288       0.60074093      -0.69816309       0.03328613       0.01561910      -0.01143635
H       -2.41205777      -0.57204572       0.45978598       0.00617487      -0.03465657       0.02474112
H        0.45163407       1.62794081      -0.42723939       0.01700234       0.00342621      -0.00220621
10
Properties=species:S:1:pos:R:3:forces:R:3 energy=-10680.162790524131 pbc="F F F"
N       -1.85011988      -0.02898139      -0.05494848       0.00237753      -0.00188119       0.00046136
C       -0.55392705       0.00035163       0.17692872       0.00070308       0.00360316      -0.00164395
N       -0.12022074      -1.25172767       0.08039449       0.00195551       0.00069280      -0.00138378
O        1.24604614      -1.18582926      -0.31095079      -0.00017319       0.00077208       0.00050656
C        1.64730378       0.10613122      -0.14222703      -0.00076188       0.00117487       0.00038099
O        2.75729652       0.51399928      -0.31419857      -0.00046181      -0.00178402      -0.00013407
N        0.51064203       0.84460244       0.24916499       0.00006033      -0.00356625      -0.00185401
H       -1.36288103      -1.36494650      -0.29659777      -0.00048982       0.00312148       0.00200402
H       -2.48455464       0.57091768       0.46184252       0.00083507      -0.00132337       0.00032583
H        0.49503197       1.84985412       0.18114157       0.00198519       0.00269979       0.00202916
10
Properties=species:S:1:pos:R:3:forces:R:3 energy=-10682.569503933753 pbc="F F F"
N       -1.86126199       0.62372340       0.35910631       0.03639331       0.00744506      -0.00889425
C       -0.70157617       0.14786794       0.20136065      -0.03448534       0.01797426       0.00276535
N       -0.26032313      -1.19841015       0.13226230      -0.03019891       0.02155504       0.00692662
O        1.11388657      -1.18064151      -0.23018560      -0.01375425      -0.00553229      -0.00004884
C        1.55530674       0.11476062      -0.18764359      -0.00435384       0.00673710       0.00516090
O        2.69282902       0.43452370      -0.37002872       0.02414650      -0.00054427      -0.00802308
N        0.45674277       0.89056251       0.10034203       0.02218261       0.02115404       0.00172883
H       -0.73071120      -1.73618752      -0.58982564       0.00063391      -0.00914999      -0.00792625
H       -2.56653990      -0.10333335       0.44218838       0.00412222      -0.04219583       0.00504311
H        0.48549670       1.89523731       0.17537610       0.00410568      -0.01687692      -0.00272340
10
Properties=species:S:1:pos:R:3:forces:R:3 energy=-10682.988580036135 pbc="F F F"
N       -1.80833679       0.18397903       0.16153792      -0.00646750       0.00271243      -0.00566826
C       -0.48853630      -0.20599256       0.12993990       0.03538298       0.01490819      -0.00613375
N       -0.04280633      -1.35707923       0.50830724      -0.00961338      -0.01323012       0.00769820
O        1.36345535      -1.25104737       0.40944073      -0.02357992      -0.02335712       0.00904515
C        1.72090974      -0.02596725      -0.05222589       0.00507582       0.01129703      -0.00550652
O        2.84240754       0.36317899      -0.22710618      -0.00484366       0.00456563      -0.00135810
N        0.51797773       0.63645214      -0.26343941      -0.04287341       0.02007929      -0.00134812
H       -2.14354288       0.60074093      -0.69816309       0.03328613       0.01561910      -0.01143635
H       -2.41205777      -0.57204572       0.45978598       0.00617487      -0.03465657       0.02474112
H        0.45163407       1.62794081      -0.42723939       0.01700234       0.00342621      -0.00220621
10
Properties=species:S:1:pos:R:3:forces:R:3 energy=-10678.813111965845 pbc="F F F"
N       -1.73505932      -0.01064859      -0.14051159       0.00245340       0.00356584      -0.00314314
C       -0.54193956      -0.47348688       0.30615877      -0.00217973      -0.00140176       0.00453978
N       -0.11012830      -1.29067327       1.17194546       0.00058435      -0.00916003      -0.00551432
O        0.55480635      -1.19867775      -0.26316193       0.00169452       0.00361290       0.00146064
C        1.61277706       0.24115252      -0.29729640      -0.00458900      -0.00343889       0.00148985
O        2.73226694       0.01745058      -0.58415283       0.00403484      -0.00183714      -0.00102760
N        0.63377896       1.01581355      -0.00560819      -0.00107850       0.01218653      -0.00326478
H       -1.68307629       0.59162620      -0.94874613      -0.00355107       0.00049662       0.00487514
H       -2.47174563      -0.70241357      -0.15702133      -0.00457155       0.00023995      -0.00558646
H        0.84430754       1.96895191       0.26348280       0.00343531      -0.00108530      -0.00409271
10
Properties=species:S:1:pos:R:3:forces:R:3 energy=-10680.375680076348 pbc="F F F"
N       -1.56141015      -0.41222011      -0.14270596       0.00494769      -0.01961202      -0.00220475
C       -1.04626423      -0.82749296       1.01420530       0.00694406      -0.01261625      -0.01763767
N       -1.20032479      -1.59761312       2.01317299       0.01154714      -0.00257448      -0.00338910
O        0.04752656      -0.47535441       1.63332009      -0.00267436       0.00741219       0.00296154
C        1.94498502       1.43404782      -1.06244795      -0.00070936      -0.00003713      -0.00644813
O        2.55300632       2.35146759      -1.45169825      -0.00486488      -0.01044315      -0.00993300
N        1.24055250       0.48098296      -0.77227888       0.02657498       0.01053030       0.01499528
H       -0.92272866       0.07685802      -0.76297434      -0.00947412       0.00701473       0.00967081
H       -2.31784576      -0.93999711      -0.55052116       0.00061291       0.01837481      -0.00051977
H        1.32478296      -0.02492990       0.10626633      -0.01939274       0.00203914       0.01190208
10
Properties=species:S:1:pos:R:3:forces:R:3 energy=-10682.988580038365 pbc="F F F"
N       -1.80833678       0.18397902       0.16153791      -0.00646703       0.00271251      -0.00566819
C       -0.48853629      -0.20599257       0.12993989       0.03538319       0.01490825      -0.00613404
N       -0.04280631      -1.35707925       0.50830719      -0.00961351      -0.01322972       0.00769834
O        1.36345536      -1.25104737       0.40944073      -0.02357967      -0.02335730       0.00904503
C        1.72090974      -0.02596724      -0.05222590       0.00507561       0.01129675      -0.00550638
O        2.84240754       0.36317900      -0.22710617      -0.00484327       0.00456588      -0.00135820
N        0.51797773       0.63645214      -0.26343941      -0.04287326       0.02008003      -0.00134818
H       -2.14354286       0.60074093      -0.69816310       0.03328599       0.01561908      -0.01143641
H       -2.41205775      -0.57204571       0.45978599       0.00617466      -0.03465672       0.02474110
H        0.45163408       1.62794084      -0.42723940       0.01700231       0.00342535      -0.00220603
10
Properties=species:S:1:pos:R:3:forces:R:3 energy=-10680.481986099749 pbc="F F F"
N       -1.89493588       0.03207394       0.14467418       0.00054389      -0.00308380       0.00147646
C       -0.55809059      -0.23611072       0.15622214      -0.00160922      -0.00198168      -0.00010378
N       -0.05627314      -1.36220994       0.60981978       0.01110058       0.00679636       0.00385444
O        1.36914497      -1.17594771       0.51248476      -0.00810355       0.00315901       0.00298915
C        1.53916680       0.01606976      -0.00027332      -0.00356659      -0.00025573       0.00183613
O        2.53829612       0.73051272      -0.29869302       0.00196546      -0.00416734       0.00106103
N        0.39928380       0.64956690      -0.25460534      -0.00005674      -0.00541366       0.00060822
H       -2.20898627       0.64541655      -0.59237866      -0.00114258       0.00518927       0.00504496
H       -2.48491097      -0.77309345       0.30044885       0.00316675      -0.00240435      -0.00900871
H        1.37726488       1.45809407      -0.57427367       0.00225279      -0.00844900      -0.00053498
10
Properties=species:S:1:pos:R:3:forces:R:3 energy=-10682.634482157382 pbc="F F F"
N       -2.01490831      -0.10583191       0.18681143      -0.04022137      -0.00905957       0.00359338
C       -0.65796044      -0.27627846       0.17593830      -0.01631801      -0.00529496       0.00426786
N       -0.06610123      -1.36100152       0.61295019      -0.01784398       0.01708463       0.00087343
O        1.30528697      -1.03698249       0.46601013      -0.02214221       0.00578989      -0.00101815
C        1.32983709       0.17493810      -0.04443305       0.03347773       0.01353788      -0.00579448
O        2.52333906       0.69052536      -0.27689453       0.01516939      -0.01269812      -0.00038312
N        0.17559753       0.72587139      -0.26011236      -0.00462211      -0.02405160      -0.00248971
H       -2.36024893       0.53673165      -0.50962252       0.00799458       0.03046906       0.00164837
H       -2.55661544      -0.95239443       0.27733203       0.02250932      -0.03847246       0.00523695
H        2.37737338       1.57813116      -0.63647068       0.02961577       0.01790791      -0.00651892
10
Properties=species:S:1:pos:R:3:forces:R:3 energy=-7737.954765805286 pbc="F F F"
C        1.60648682       0.12646554      -0.11423896       0.03080479       0.00558279      -0.00412903
O        0.26225194       0.27627731      -0.56040702       0.01745976       0.00659655      -0.02085901
C       -0.67143457      -0.11764311       0.33039970       0.00430968      -0.01963515       0.04026215
O       -0.42839749      -0.57363811       1.42647490       0.01434959       0.01296588      -0.02808731
N       -1.92114268       0.10235457      -0.17433578      -0.00929511      -0.01365010       0.00287349
H        1.79194478       0.73506238       0.77476138      -0.02061530      -0.00899745       0.00267200
H        2.22556453       0.46918945      -0.94344105       0.02983554       0.00195096      -0.00428501
H        1.82796329      -0.91886695       0.11798939      -0.03179697       0.00909562       0.00748785
H       -2.01916662       0.25786356      -1.16476877      -0.00736701       0.00041655       0.00446603
H       -2.67485080      -0.35762974       0.30857006      -0.03007688       0.00401649       0.00333283
10
Properties=species:S:1:pos:R:3:forces:R:3 energy=-7735.559922993395 pbc="F F F"
C        1.59290326       0.09826371      -0.06095770       0.00392090      -0.00082313      -0.00007215
O        0.32729130       0.30494888      -0.70069835       0.00225776      -0.00481264      -0.00227287
C       -0.72561377      -0.03597411       0.01457178      -0.00080338      -0.00120746      -0.00406067
O       -0.67196025      -0.50381175       1.21365243       0.00450176      -0.00459111      -0.00384271
N       -1.97903019       0.03274444      -0.34134047       0.00239760       0.00464465       0.00088781
H        1.64344575       0.66496634       0.87119655      -0.00038906       0.00139041       0.00082169
H        2.33961396       0.45467436      -0.76999319       0.00223711       0.00139605      -0.00214746
H        1.73968759      -0.96339889       0.14987862       0.00523570      -0.00176595       0.00301575
H       -2.30065483       0.36333501      -1.24004197      -0.00240671       0.00538454      -0.00432838
H       -1.92494565      -0.45409220       0.90517145      -0.00601112      -0.00083174       0.00106293
10
Properties=species:S:1:pos:R:3:forces:R:3 energy=-7736.949268333538 pbc="F F F"
C        1.49983206       0.09217222      -0.05318970       0.01649430       0.00472100      -0.00793508
O        0.25229209       0.30566665      -0.71062587       0.01622682       0.00286457      -0.00390053
C       -0.87862422      -0.01555906      -0.06941128      -0.02366771       0.00505917      -0.01679992
O       -0.67048540      -0.51888815       1.16177162      -0.00765600      -0.00099868      -0.00071525
N       -2.04746106       0.12206632      -0.53425834      -0.01310398      -0.00475062       0.00746477
H        1.56718564       0.67812909       0.86780502      -0.02455272      -0.01356482      -0.00727392
H        2.25375802       0.42886167      -0.76471439       0.03291124       0.00176331       0.00448075
H        1.65120592      -0.96645932       0.17635401      -0.02932578       0.01248292       0.00041910
H       -2.02014411       0.51459142      -1.47061801       0.01988835      -0.00011002      -0.00145474
H       -1.55903932      -0.70386515       1.50320091       0.02049788      -0.01054458       0.02680022
10
Properties=species:S:1:pos:R:3:forces:R:3 energy=-7737.954765809939 pbc="F F F"
C        1.60648682       0.12646554      -0.11423897       0.03080479       0.00558276      -0.00412898
O        0.26225194       0.27627731      -0.56040702       0.01745956       0.00659651      -0.02085913
C       -0.67143457      -0.11764311       0.33039970       0.00430963      -0.01963521       0.04026231
O       -0.42839749      -0.57363811       1.42647490       0.01434956       0.01296598      -0.02808758
N       -1.92114268       0.10235457      -0.17433578      -0.00929499      -0.01365013       0.00287368
H        1.79194478       0.73506238       0.77476138      -0.02061530      -0.00899746       0.00267198
H        2.22556453       0.46918945      -0.94344105       0.02983550       0.00195096      -0.00428501
H        1.82796329      -0.91886695       0.11798939      -0.03179698       0.00909564       0.00748784
H       -2.01916662       0.25786356      -1.16476877      -0.00736703       0.00041657       0.00446592
H       -2.67485080      -0.35762974       0.30857006      -0.03007687       0.00401651       0.00333281
10
Properties=species:S:1:pos:R:3:forces:R:3 energy=-7735.3230661522675 pbc="F F F"
C        1.41397606      -0.01217530      -0.24369203      -0.01212808       0.00303741      -0.00199832
O        0.17202324       0.67399340      -0.37808453      -0.01925519      -0.01042149       0.01527914
C       -0.94642308       0.16889648       0.69265541       0.00883116       0.00911502      -0.00656622
O       -0.72668083       0.26066788       1.85782714       0.00516405       0.00355879       0.00079165
N       -1.74790737      -0.22105714      -0.25796065       0.00168531       0.00015146      -0.00131079
H        1.76764174       0.14255669       0.77928646       0.00433950      -0.00538235      -0.01204601
H        2.12126324       0.41807062      -0.95545943       0.00342666      -0.00430777       0.01013850
H        1.28911626      -1.08503867      -0.43459191       0.00040738       0.00564615       0.00399353
H       -0.70257170       0.19550751      -1.00599706       0.00051832      -0.00035008       0.00074179
H       -2.66675070      -0.56696051      -0.01579413       0.00558900      -0.00329102      -0.00229283
10
Properties=species:S:1:pos:R:3:forces:R:3 energy=-7736.62897928636 pbc="F F F"
C        1.55026668       0.13966492      -0.45048532      -0.00695298      -0.00443068       0.00859795
O        0.65520123       0.51432549      -1.46836461       0.03695908       0.00742711      -0.00102312
C       -1.55106933      -0.31113449       1.30778534       0.02598787       0.00434601       0.00426454
O       -1.16584760      -0.41019645       2.40426261      -0.01424382      -0.00379224       0.01044252
N       -1.81587960      -0.17417309       0.12442486       0.01357538       0.00290857      -0.01542603
H        1.39950168       0.70516236       0.48386112      -0.02369387       0.01060007      -0.01243328
H        2.56105444       0.35496692      -0.80889361      -0.00653850      -0.00317387       0.00165736
H        1.50055678      -0.93426080      -0.20874037      -0.02251747      -0.00385785      -0.02241585
H       -0.23872330       0.34415656      -1.13867854      -0.00107664      -0.01017236       0.02382843
H       -2.73780638      -0.29631586      -0.26429724      -0.00342754      -0.00361741       0.01040174
10
Properties=species:S:1:pos:R:3:forces:R:3 energy=-7737.446511759657 pbc="F F F"
N        1.40864542       0.05885169       0.14841108       0.01981495      -0.01118462       0.00441467
C        0.34117946      -0.77860394       0.07212732      -0.00353251       0.00430049      -0.00236455
O        0.38992422      -1.98407605       0.23193957       0.02251186      -0.03220550       0.00166354
C       -0.97443244      -0.07197057      -0.24469221      -0.00475552       0.02806890      -0.00137619
O       -0.90481868       1.33855208      -0.16062589      -0.00853998       0.00255404      -0.02485535
H        2.33040277      -0.34465575       0.21743316      -0.02130206       0.00353207       0.00058949
H        1.29814554       1.01353069      -0.15762944       0.01732187      -0.00451502      -0.00702701
H       -1.23593170      -0.31024553      -1.27964853      -0.01356982      -0.01521484      -0.01431733
H       -1.75260408      -0.50260136       0.39749570       0.01126232       0.01904536       0.00916358
H       -0.90119737       1.58000328       0.77372563      -0.02159297       0.00047271       0.02764502
10
Properties=species:S:1:pos:R:3:forces:R:3 energy=-7732.910245122399 pbc="F F F"
N        1.78305859       0.04897619       0.12127646       0.00449428      -0.00034527      -0.01262305
C        0.68285750      -0.28246280      -0.58364895       0.01094201       0.01599223      -0.02921411
O        0.09897838      -1.36078359      -0.16620559      -0.02345764       0.03691980       0.00807319
C       -1.19256528      -0.07856297      -0.33279300      -0.00226651      -0.01432500      -0.00293610
O       -1.23997132       1.22246716       0.09762468       0.01227231      -0.00462630      -0.00567981
H        2.13785783      -0.59187013       0.82695308       0.00964852      -0.00481494       0.02266664
H        2.37833469       0.79941644      -0.19015291      -0.00254620      -0.00535861      -0.00024739
H       -1.45147300      -0.16640644      -1.37787507       0.00726983      -0.00218559       0.00246834
H       -1.78356834      -0.71352588       0.33032279      -0.00932892      -0.00750214       0.00451742
H       -1.35304154       1.23072011       1.05642287      -0.00361706      -0.01037748       0.00629748
10
Properties=species:S:1:pos:R:3:forces:R:3 energy=-7735.472103148085 pbc="F F F"
N        2.02251807      -0.02849012       0.24543353      -0.00510860      -0.02732597       0.00667240
C        0.73522089       0.25554606       0.41458056       0.00132887       0.03585653      -0.00219417
O        0.02685177      -0.57855198      -0.35776392      -0.02316594       0.03230154       0.02197175
C       -1.38524178      -0.34283243      -0.20819792      -0.01313162      -0.02168018       0.01235550
O       -1.72112556       0.97631799      -0.41896331       0.01113099      -0.01594876      -0.00494853
H        2.34311500      -0.77289254      -0.36821408       0.01392067       0.02043830      -0.02708790
H        2.71477530       0.50715031       0.74325312      -0.01639332      -0.02218863       0.00163214
H       -1.87440657      -0.94942634      -0.96990800       0.00544228      -0.01207378      -0.04142821
H       -1.66507905      -0.69150436       0.79381880      -0.00610346      -0.00956749       0.03785516
H       -1.18279330       1.47194519       0.22153656       0.02875345       0.01826240      -0.00737484
10
Properties=species:S:1:pos:R:3:forces:R:3 energy=-7737.446511759657 pbc="F F F"
N        1.40864542       0.05885169       0.14841108       0.01981495      -0.01118462       0.00441467
C        0.34117946      -0.77860394       0.07212732      -0.00353251       0.00430049      -0.00236455
O        0.38992422      -1.98407605       0.23193957       0.02251186      -0.03220550       0.00166354
C       -0.97443244      -0.07197057      -0.24469221      -0.00475552       0.02806890      -0.00137619
O       -0.90481868       1.33855208      -0.16062589      -0.00853998       0.00255404      -0.02485535
H        2.33040277      -0.34465575       0.21743316      -0.02130206       0.00353207       0.00058949
H        1.29814554       1.01353069      -0.15762944       0.01732187      -0.00451502      -0.00702701
H       -1.23593170      -0.31024553      -1.27964853      -0.01356982      -0.01521484      -0.01431733
H       -1.75260408      -0.50260136       0.39749570       0.01126232       0.01904536       0.00916358
H       -0.90119737       1.58000328       0.77372563      -0.02159297       0.00047271       0.02764502
10
Properties=species:S:1:pos:R:3:forces:R:3 energy=-7733.517424360987 pbc="F F F"
N        1.22274927       0.01815187      -0.46904176       0.01128630       0.00550076      -0.00043227
C        0.15005534      -0.77158836       0.34474086       0.00561375      -0.02924887       0.02291887
O        0.42329186      -1.85404551       0.78997548      -0.00263021       0.00015505      -0.00669162
C       -1.03643312      -0.09471150      -0.10541999      -0.00620157       0.00987769       0.00877339
O       -1.03326103       1.31990037       0.02851746      -0.00191880       0.01463259      -0.00525243
H        2.02145306      -0.56082048      -0.70938378       0.01214839      -0.00853157      -0.00147254
H        1.48337882       0.92274233      -0.08904895      -0.00320676       0.01565672       0.00487871
H        0.13023105       0.00180533      -1.11117470      -0.01340268       0.00561297      -0.02501740
H       -1.99271793      -0.57841344       0.09359396      -0.00999857      -0.00681969       0.00018171
H       -1.31315839       1.52992954       0.92962288       0.00368082      -0.00657848      -0.00308357
10
Properties=species:S:1:pos:R:3:forces:R:3 energy=-7735.219862545056 pbc="F F F"
N        1.19925258       0.06953557      -0.43499220      -0.00977931       0.00431367       0.00730654